#     DFTpy    
  CRYSTAL 
    
  PRIMVEC    
  0.0    2.0399999999999996    2.0399999999999996    
  2.0399999999999996    0.0    2.0399999999999996    
  2.0399999999999996    2.0399999999999996    0.0    
  PRIMCOORD    
  1    1    
  Ag    0.0    0.0    0.0    
  BEGIN_BLOCK_DATAGRID_3D    
  3d_datagrid_density    
  BEGIN_DATAGRID_3D#0    
  33    33    33    
  0.0    0.0    0.0    
  0.0    2.0399999986925286    2.0399999986925286    
  2.0399999986925286    0.0    2.0399999986925286    
  2.0399999986925286    2.0399999986925286    0.0    
  6.2455891473438765    7.561025080640814    10.668868059782467    13.572021405376864    14.367022022964687    
  12.45555487718504    8.856388630059657    5.380774940227    3.077092800382601    1.774544992893308    
  1.0516953123223212    0.6491588010533152    0.4183363089552139    0.28698430431051775    0.2105157659540579    
  0.17274508712696782    0.16019202944177766    0.17274508712696782    0.2105157659540579    0.28698430431051775    
  0.4183363089552139    0.6491588010533152    1.0516953123223212    1.774544992893308    3.077092800382601    
  5.380774940227    8.856388630059657    12.45555487718504    14.367022022964687    13.572021405376864    
  10.668868059782467    7.561025080640814    6.2455891473438765    7.5610250806408175    9.763490202023734    
  12.70489984488949    14.381259447933841    13.549158685447003    10.503385277217467    6.802925453185167    
  3.9617471544703835    2.2758627257904815    1.3319357641432465    0.8081478030800767    0.5097846839407594    
  0.3394806180557467    0.24028411062327626    0.18624875976528485    0.1620322567572913    0.16203225675729035    
  0.1862487597652858    0.2402841106232764    0.33948061805574636    0.5097846839407588    0.8081478030800774    
  1.3319357641432468    2.2758627257904815    3.9617471544703835    6.802925453185165    10.503385277217468    
  13.549158685447003    14.381259447933841    12.70489984488949    9.763490202023734    7.561025080640814    
  7.5610250806408175    10.668868059782467    12.70489984488949    14.278935605631572    13.96978291080068    
  11.50220735338787    7.9297700188679405    4.7892150235240205    2.774792040202196    1.6241023988336665    
  0.9758022904148215    0.6092006637861053    0.3967910596229884    0.27421740160926983    0.2029759136244196    
  0.16739483769747082    0.1551643296360817    0.16739483769747077    0.20297591362442055    0.27421740160926966    
  0.39679105962298766    0.609200663786106    0.975802290414822    1.624102398833667    2.7747920402021955    
  4.7892150235240205    7.9297700188679405    11.50220735338787    13.96978291080068    14.278935605631569    
  12.70489984488949    10.668868059782465    9.763490202023734    10.668868059782467    13.572021405376864    
  14.381259447933841    13.96978291080068    11.827628479279584    8.54065748381988    5.380902026131263    
  3.186778108664116    1.885692371419891    1.134689299083318    0.7061844380585032    0.4551922003523046    
  0.3090759483156277    0.2221339518443713    0.17420020550981968    0.15233265501584345    0.1523326550158441    
  0.17420020550981957    0.2221339518443719    0.3090759483156272    0.4551922003523046    0.7061844380585031    
  1.1346892990833186    1.885692371419891    3.186778108664116    5.380902026131263    8.54065748381988    
  11.827628479279584    13.96978291080068    14.381259447933841    13.572021405376864    12.70489984488949    
  12.70489984488949    13.572021405376864    14.367022022964687    13.549158685447003    11.50220735338787    
  8.54065748381988    5.594983611623667    3.421971415438674    2.0689043219408942    1.2611111652159896    
  0.7884643853396198    0.5081095510800271    0.3411907932885866    0.2413661727087483    0.18240854367724715    
  0.1522891891878918    0.1425485515873877    0.15228918918789244    0.18240854367724696    0.2413661727087485    
  0.34119079328858726    0.5081095510800266    0.7884643853396202    1.2611111652159899    2.0689043219408934    
  3.421971415438674    5.594983611623667    8.54065748381988    11.50220735338787    13.549158685447003    
  14.367022022964687    14.381259447933841    14.278935605631576    14.381259447933841    14.367022022964687    
  12.455554877185042    10.503385277217467    7.929770018867942    5.380902026131264    3.421971415438674    
  2.1346579102677823    1.3312970746619095    0.8445155537100378    0.5487718929505415    0.3686269320627504    
  0.258511215330363    0.1915320538152324    0.15410188324359553    0.13683205341499913    0.13683205341499924    
  0.1541018832435962    0.1915320538152317    0.25851121533036386    0.3686269320627509    0.5487718929505416    
  0.8445155537100387    1.3312970746619093    2.134657910267783    3.421971415438674    5.380902026131263    
  7.9297700188679405    10.503385277217468    12.45555487718504    13.549158685447003    13.96978291080068    
  13.96978291080068    13.549158685447003    12.455554877185042    8.856388630059657    6.802925453185165    
  4.7892150235240205    3.1867781086641163    2.0689043219408934    1.3312970746619082    0.8646301471568245    
  0.5709305699494309    0.3867854383827403    0.27182650028648875    0.19916207872042926    0.1565199051138198    
  0.13298247249585782    0.12559667390019888    0.132982472495858    0.15651990511381997    0.19916207872042932    
  0.2718265002864892    0.38678543838274093    0.5709305699494311    0.8646301471568248    1.3312970746619095    
  2.0689043219408934    3.186778108664116    4.78921502352402    6.802925453185165    8.856388630059655    
  10.503385277217468    11.50220735338787    11.827628479279584    11.50220735338787    10.503385277217468    
  8.856388630059657    5.380774940227    3.9617471544703835    2.774792040202196    1.885692371419891    
  1.2611111652159894    0.8445155537100387    0.5709305699494309    0.3926884506565305    0.2785952748414153    
  0.20434415267496264    0.15875694289050407    0.13142961632186326    0.1189129593813567    0.1189129593813567    
  0.13142961632186312    0.1587569428905047    0.20434415267496273    0.27859527484141555    0.39268845065653085    
  0.5709305699494311    0.8445155537100387    1.2611111652159896    1.885692371419891    2.774792040202196    
  3.9617471544703835    5.380774940226998    6.802925453185165    7.9297700188679405    8.54065748381988    
  8.54065748381988    7.9297700188679405    6.802925453185165    5.380774940227    3.0770928003826024    
  2.2758627257904815    1.6241023988336674    1.1346892990833186    0.7884643853396194    0.5487718929505414    
  0.3867854383827403    0.278595274841415    0.2060943878825373    0.15966244253181988    0.13061025878546464    
  0.11457114113204582    0.10989091597757225    0.11457114113204553    0.13061025878546498    0.15966244253182052    
  0.2060943878825371    0.27859527484141544    0.386785438382741    0.5487718929505416    0.7884643853396204    
  1.1346892990833184    1.6241023988336671    2.275862725790482    3.077092800382601    3.9617471544703835    
  4.7892150235240205    5.380902026131263    5.594983611623666    5.380902026131264    4.7892150235240205    
  3.9617471544703835    3.0770928003826024    1.774544992893309    1.3319357641432465    0.9758022904148212    
  0.706184438058503    0.508109551080027    0.3686269320627507    0.2718265002864881    0.204344152674963    
  0.15966244253182016    0.13014243790585328    0.11279381241645844    0.10444921844274815    0.10444921844274814    
  0.11279381241645862    0.13014243790585375    0.15966244253182038    0.20434415267496273    0.2718265002864888    
  0.36862693206275104    0.5081095510800266    0.706184438058503    0.9758022904148216    1.3319357641432468    
  1.7745449928933086    2.2758627257904815    2.774792040202196    3.1867781086641163    3.421971415438674    
  3.4219714154386747    3.1867781086641163    2.774792040202196    2.2758627257904815    1.774544992893309    
  1.0516953123223216    0.8081478030800769    0.6092006637861052    0.4551922003523054    0.341190793288587    
  0.2585112153303633    0.19916207872042901    0.15875694289050446    0.13061025878546495    0.11279381241645882    
  0.10349508251563858    0.10000369085274077    0.10349508251563881    0.11279381241645861    0.1306102587854651    
  0.15875694289050438    0.19916207872042935    0.25851121533036336    0.34119079328858753    0.4551922003523046    
  0.6092006637861062    0.8081478030800769    1.0516953123223212    1.3319357641432468    1.6241023988336662    
  1.88569237141989    2.068904321940893    2.1346579102677827    2.0689043219408934    1.885692371419891    
  1.6241023988336667    1.3319357641432468    1.0516953123223216    0.6491588010533151    0.509784683940759    
  0.3967910596229879    0.3090759483156277    0.24136617270874777    0.1915320538152321    0.15651990511381908    
  0.1314296163218629    0.11457114113204556    0.10444921844274781    0.10000369085274058    0.10000369085274075    
  0.10444921844274808    0.11457114113204542    0.13142961632186315    0.15651990511381939    0.19153205381523172    
  0.24136617270874783    0.3090759483156275    0.39679105962298755    0.509784683940759    0.6491588010533146    
  0.808147803080077    0.9758022904148216    1.1346892990833182    1.2611111652159894    1.3312970746619097    
  1.3312970746619095    1.2611111652159894    1.1346892990833186    0.9758022904148221    0.8081478030800774    
  0.6491588010533151    0.41833630895521345    0.33948061805574653    0.274217401609268    0.2221339518443713    
  0.18240854367724676    0.1541018832435956    0.13298247249585698    0.1189129593813566    0.10989091597757206    
  0.10444921844274749    0.10349508251563852    0.10444921844274793    0.10989091597757225    0.11891295938135649    
  0.13298247249585807    0.15410188324359556    0.18240854367724696    0.22213395184437104    0.27421740160927005    
  0.3394806180557462    0.41833630895521395    0.5097846839407587    0.6092006637861059    0.7061844380585028    
  0.78846438533962    0.8445155537100382    0.8646301471568243    0.8445155537100382    0.7884643853396199    
  0.7061844380585032    0.6092006637861047    0.5097846839407587    0.41833630895521345    0.2869843043105183    
  0.24028411062327631    0.20297591362441844    0.17420020550982027    0.1522891891878916    0.13683205341499946    
  0.12559667390019869    0.11891295938135686    0.11457114113204535    0.11279381241645849    0.11279381241645883    
  0.11457114113204553    0.11891295938135682    0.12559667390019866    0.13683205341499935    0.15228918918789178    
  0.1742002055098196    0.20297591362441966    0.24028411062327681    0.2869843043105177    0.33948061805574675    
  0.3967910596229878    0.45519220035230484    0.5081095510800265    0.5487718929505416    0.5709305699494311    
  0.5709305699494313    0.548771892950542    0.5081095510800264    0.4551922003523053    0.396791059622987    
  0.33948061805574625    0.2869843043105183    0.21051576595405774    0.18624875976528446    0.16739483769747057    
  0.15233265501584395    0.14254855158738824    0.1368320534149997    0.13298247249585762    0.13142961632186323    
  0.13061025878546464    0.13014243790585345    0.13061025878546484    0.13142961632186284    0.13298247249585796    
  0.13683205341499885    0.14254855158738783    0.15233265501584328    0.16739483769747074    0.18624875976528477    
  0.21051576595405824    0.2402841106232762    0.2742174016092699    0.3090759483156272    0.3411907932885872    
  0.36862693206275077    0.3867854383827403    0.3926884506565304    0.38678543838274027    0.3686269320627507    
  0.34119079328858765    0.3090759483156278    0.27421740160927    0.24028411062327626    0.21051576595405774    
  0.1727450871269673    0.16203225675729108    0.15516432963608046    0.15233265501584375    0.1522891891878926    
  0.15410188324359525    0.15651990511381894    0.1587569428905041    0.15966244253182035    0.15966244253182027    
  0.15875694289050432    0.15651990511381939    0.15410188324359575    0.15228918918789153    0.15233265501584362    
  0.15516432963608073    0.16203225675729038    0.17274508712696673    0.18624875976528518    0.2029759136244194    
  0.22213395184437135    0.24136617270874788    0.25851121533036336    0.2718265002864889    0.2785952748414153    
  0.27859527484141533    0.2718265002864885    0.2585112153303628    0.24136617270874858    0.2221339518443713    
  0.2029759136244195    0.18624875976528554    0.1727450871269673    0.1601920294417778    0.16203225675728947    
  0.1673948376974708    0.17420020550981818    0.1824085436772477    0.19153205381523122    0.19916207872042901    
  0.20434415267496306    0.20609438788253737    0.20434415267496286    0.1991620787204297    0.19153205381523195    
  0.1824085436772473    0.17420020550981938    0.16739483769747115    0.16203225675729022    0.16019202944177763    
  0.16203225675729022    0.16739483769747115    0.17420020550981938    0.1824085436772473    0.19153205381523195    
  0.1991620787204297    0.20434415267496286    0.20609438788253737    0.20434415267496306    0.19916207872042901    
  0.19153205381523122    0.1824085436772477    0.17420020550981818    0.1673948376974708    0.16203225675728947    
  0.1601920294417778    0.1727450871269673    0.18624875976528554    0.2029759136244195    0.2221339518443713    
  0.24136617270874858    0.2585112153303628    0.2718265002864885    0.27859527484141533    0.2785952748414153    
  0.2718265002864889    0.25851121533036336    0.24136617270874788    0.22213395184437135    0.2029759136244194    
  0.18624875976528518    0.17274508712696673    0.16203225675729038    0.15516432963608073    0.15233265501584362    
  0.15228918918789153    0.15410188324359575    0.15651990511381939    0.15875694289050432    0.15966244253182027    
  0.15966244253182035    0.1587569428905041    0.15651990511381894    0.15410188324359525    0.1522891891878926    
  0.15233265501584375    0.15516432963608046    0.16203225675729108    0.1727450871269673    0.21051576595405774    
  0.24028411062327626    0.27421740160927    0.3090759483156278    0.34119079328858765    0.3686269320627507    
  0.38678543838274027    0.3926884506565304    0.3867854383827403    0.36862693206275077    0.3411907932885872    
  0.3090759483156272    0.2742174016092699    0.2402841106232762    0.21051576595405824    0.18624875976528477    
  0.16739483769747074    0.15233265501584328    0.14254855158738783    0.13683205341499885    0.13298247249585796    
  0.13142961632186284    0.13061025878546484    0.13014243790585345    0.13061025878546464    0.13142961632186323    
  0.13298247249585762    0.1368320534149997    0.14254855158738824    0.15233265501584395    0.16739483769747057    
  0.18624875976528446    0.21051576595405774    0.2869843043105183    0.33948061805574625    0.396791059622987    
  0.4551922003523053    0.5081095510800264    0.548771892950542    0.5709305699494313    0.5709305699494311    
  0.5487718929505416    0.5081095510800265    0.45519220035230484    0.3967910596229878    0.33948061805574675    
  0.2869843043105177    0.24028411062327681    0.20297591362441966    0.1742002055098196    0.15228918918789178    
  0.13683205341499935    0.12559667390019866    0.11891295938135682    0.11457114113204553    0.11279381241645883    
  0.11279381241645849    0.11457114113204535    0.11891295938135686    0.12559667390019869    0.13683205341499946    
  0.1522891891878916    0.17420020550982027    0.20297591362441844    0.24028411062327631    0.2869843043105183    
  0.41833630895521345    0.5097846839407587    0.6092006637861047    0.7061844380585032    0.7884643853396199    
  0.8445155537100382    0.8646301471568243    0.8445155537100382    0.78846438533962    0.7061844380585028    
  0.6092006637861059    0.5097846839407587    0.41833630895521395    0.3394806180557462    0.27421740160927005    
  0.22213395184437104    0.18240854367724696    0.15410188324359556    0.13298247249585807    0.11891295938135649    
  0.10989091597757225    0.10444921844274793    0.10349508251563852    0.10444921844274749    0.10989091597757206    
  0.1189129593813566    0.13298247249585698    0.1541018832435956    0.18240854367724676    0.2221339518443713    
  0.274217401609268    0.33948061805574653    0.41833630895521345    0.6491588010533151    0.8081478030800774    
  0.9758022904148221    1.1346892990833186    1.2611111652159894    1.3312970746619095    1.3312970746619097    
  1.2611111652159894    1.1346892990833182    0.9758022904148216    0.808147803080077    0.6491588010533146    
  0.509784683940759    0.39679105962298755    0.3090759483156275    0.24136617270874783    0.19153205381523172    
  0.15651990511381939    0.13142961632186315    0.11457114113204542    0.10444921844274808    0.10000369085274075    
  0.10000369085274058    0.10444921844274781    0.11457114113204556    0.1314296163218629    0.15651990511381908    
  0.1915320538152321    0.24136617270874777    0.3090759483156277    0.3967910596229879    0.509784683940759    
  0.6491588010533151    1.0516953123223216    1.3319357641432468    1.6241023988336667    1.885692371419891    
  2.0689043219408934    2.1346579102677827    2.068904321940893    1.88569237141989    1.6241023988336662    
  1.3319357641432468    1.0516953123223212    0.8081478030800769    0.6092006637861062    0.4551922003523046    
  0.34119079328858753    0.25851121533036336    0.19916207872042935    0.15875694289050438    0.1306102587854651    
  0.11279381241645861    0.10349508251563881    0.10000369085274077    0.10349508251563858    0.11279381241645882    
  0.13061025878546495    0.15875694289050446    0.19916207872042901    0.2585112153303633    0.341190793288587    
  0.4551922003523054    0.6092006637861052    0.8081478030800769    1.0516953123223216    1.774544992893309    
  2.2758627257904815    2.774792040202196    3.1867781086641163    3.4219714154386747    3.421971415438674    
  3.1867781086641163    2.774792040202196    2.2758627257904815    1.7745449928933086    1.3319357641432468    
  0.9758022904148216    0.706184438058503    0.5081095510800266    0.36862693206275104    0.2718265002864888    
  0.20434415267496273    0.15966244253182038    0.13014243790585375    0.11279381241645862    0.10444921844274814    
  0.10444921844274815    0.11279381241645844    0.13014243790585328    0.15966244253182016    0.204344152674963    
  0.2718265002864881    0.3686269320627507    0.508109551080027    0.706184438058503    0.9758022904148212    
  1.3319357641432465    1.774544992893309    3.0770928003826024    3.9617471544703835    4.7892150235240205    
  5.380902026131264    5.594983611623666    5.380902026131263    4.7892150235240205    3.9617471544703835    
  3.077092800382601    2.275862725790482    1.6241023988336671    1.1346892990833184    0.7884643853396204    
  0.5487718929505416    0.386785438382741    0.27859527484141544    0.2060943878825371    0.15966244253182052    
  0.13061025878546498    0.11457114113204553    0.10989091597757225    0.11457114113204582    0.13061025878546464    
  0.15966244253181988    0.2060943878825373    0.278595274841415    0.3867854383827403    0.5487718929505414    
  0.7884643853396194    1.1346892990833186    1.6241023988336674    2.2758627257904815    3.0770928003826024    
  5.380774940227    6.802925453185165    7.9297700188679405    8.54065748381988    8.54065748381988    
  7.9297700188679405    6.802925453185165    5.380774940226998    3.9617471544703835    2.774792040202196    
  1.885692371419891    1.2611111652159896    0.8445155537100387    0.5709305699494311    0.39268845065653085    
  0.27859527484141555    0.20434415267496273    0.1587569428905047    0.13142961632186312    0.1189129593813567    
  0.1189129593813567    0.13142961632186326    0.15875694289050407    0.20434415267496264    0.2785952748414153    
  0.3926884506565305    0.5709305699494309    0.8445155537100387    1.2611111652159894    1.885692371419891    
  2.774792040202196    3.9617471544703835    5.380774940227    8.856388630059657    10.503385277217468    
  11.50220735338787    11.827628479279584    11.50220735338787    10.503385277217468    8.856388630059655    
  6.802925453185165    4.78921502352402    3.186778108664116    2.0689043219408934    1.3312970746619095    
  0.8646301471568248    0.5709305699494311    0.38678543838274093    0.2718265002864892    0.19916207872042932    
  0.15651990511381997    0.132982472495858    0.12559667390019888    0.13298247249585782    0.1565199051138198    
  0.19916207872042926    0.27182650028648875    0.3867854383827403    0.5709305699494309    0.8646301471568245    
  1.3312970746619082    2.0689043219408934    3.1867781086641163    4.7892150235240205    6.802925453185165    
  8.856388630059657    12.455554877185042    13.549158685447003    13.96978291080068    13.96978291080068    
  13.549158685447003    12.45555487718504    10.503385277217468    7.9297700188679405    5.380902026131263    
  3.421971415438674    2.134657910267783    1.3312970746619093    0.8445155537100387    0.5487718929505416    
  0.3686269320627509    0.25851121533036386    0.1915320538152317    0.1541018832435962    0.13683205341499924    
  0.13683205341499913    0.15410188324359553    0.1915320538152324    0.258511215330363    0.3686269320627504    
  0.5487718929505415    0.8445155537100378    1.3312970746619095    2.1346579102677823    3.421971415438674    
  5.380902026131264    7.929770018867942    10.503385277217467    12.455554877185042    14.367022022964687    
  14.381259447933841    14.278935605631576    14.381259447933841    14.367022022964687    13.549158685447003    
  11.50220735338787    8.54065748381988    5.594983611623667    3.421971415438674    2.0689043219408934    
  1.2611111652159899    0.7884643853396202    0.5081095510800266    0.34119079328858726    0.2413661727087485    
  0.18240854367724696    0.15228918918789244    0.1425485515873877    0.1522891891878918    0.18240854367724715    
  0.2413661727087483    0.3411907932885866    0.5081095510800271    0.7884643853396198    1.2611111652159896    
  2.0689043219408942    3.421971415438674    5.594983611623667    8.54065748381988    11.50220735338787    
  13.549158685447003    14.367022022964687    13.572021405376864    12.70489984488949    12.70489984488949    
  13.572021405376864    14.381259447933841    13.96978291080068    11.827628479279584    8.54065748381988    
  5.380902026131263    3.186778108664116    1.885692371419891    1.1346892990833186    0.7061844380585031    
  0.4551922003523046    0.3090759483156272    0.2221339518443719    0.17420020550981957    0.1523326550158441    
  0.15233265501584345    0.17420020550981968    0.2221339518443713    0.3090759483156277    0.4551922003523046    
  0.7061844380585032    1.134689299083318    1.885692371419891    3.186778108664116    5.380902026131263    
  8.54065748381988    11.827628479279584    13.96978291080068    14.381259447933841    13.572021405376864    
  10.668868059782467    9.763490202023734    10.668868059782465    12.70489984488949    14.278935605631569    
  13.96978291080068    11.50220735338787    7.9297700188679405    4.7892150235240205    2.7747920402021955    
  1.624102398833667    0.975802290414822    0.609200663786106    0.39679105962298766    0.27421740160926966    
  0.20297591362442055    0.16739483769747077    0.1551643296360817    0.16739483769747082    0.2029759136244196    
  0.27421740160926983    0.3967910596229884    0.6092006637861053    0.9758022904148215    1.6241023988336665    
  2.774792040202196    4.7892150235240205    7.9297700188679405    11.50220735338787    13.96978291080068    
  14.278935605631572    12.70489984488949    10.668868059782467    7.5610250806408175    7.561025080640814    
  9.763490202023734    12.70489984488949    14.381259447933841    13.549158685447003    10.503385277217468    
  6.802925453185165    3.9617471544703835    2.2758627257904815    1.3319357641432468    0.8081478030800774    
  0.5097846839407588    0.33948061805574636    0.2402841106232764    0.1862487597652858    0.16203225675729035    
  0.1620322567572913    0.18624875976528485    0.24028411062327626    0.3394806180557467    0.5097846839407594    
  0.8081478030800767    1.3319357641432465    2.2758627257904815    3.9617471544703835    6.802925453185167    
  10.503385277217467    13.549158685447003    14.381259447933841    12.70489984488949    9.763490202023734    
  7.5610250806408175    6.2455891473438765    7.561025080640814    10.668868059782467    13.572021405376864    
  14.367022022964687    12.45555487718504    8.856388630059657    5.380774940227    3.077092800382601    
  1.774544992893308    1.0516953123223212    0.6491588010533152    0.4183363089552139    0.28698430431051775    
  0.2105157659540579    0.17274508712696782    0.16019202944177766    0.17274508712696782    0.2105157659540579    
  0.28698430431051775    0.4183363089552139    0.6491588010533152    1.0516953123223212    1.774544992893308    
  3.077092800382601    5.380774940227    8.856388630059657    12.45555487718504    14.367022022964687    
  13.572021405376864    10.668868059782467    7.561025080640814    6.2455891473438765    7.5610250806408175    
  9.763490202023734    12.70489984488949    14.381259447933841    13.549158685447003    10.503385277217468    
  6.802925453185167    3.961747154470384    2.2758627257904824    1.3319357641432468    0.8081478030800767    
  0.5097846839407594    0.33948061805574664    0.2402841106232762    0.18624875976528482    0.16203225675729133    
  0.16203225675729035    0.18624875976528577    0.24028411062327645    0.33948061805574625    0.5097846839407588    
  0.8081478030800775    1.3319357641432468    2.275862725790482    3.961747154470384    6.802925453185167    
  10.503385277217468    13.549158685446999    14.381259447933841    12.70489984488949    9.763490202023734    
  7.561025080640814    7.5610250806408175    9.763490202023734    12.132264128310263    14.114063818255678    
  14.137132935016446    11.827521013385589    8.231478156471118    4.97782707131752    2.8713618876924722    
  1.672690234181298    1.0002555409686942    0.6220163648811492    0.4036508474714771    0.2779125142342281    
  0.20506087113428467    0.16901305095134517    0.15657360281716892    0.1690130509513451    0.20506087113428587    
  0.2779125142342279    0.4036508474714763    0.62201636488115    1.0002555409686944    1.6726902341812986    
  2.871361887692473    4.977827071317519    8.231478156471116    11.827521013385594    14.137132935016442    
  14.114063818255675    12.13226412831027    9.763490202023732    8.730086201514405    9.763490202023734    
  12.70489984488949    14.114063818255678    14.270861363796946    12.455175602067035    9.17824297340169    
  5.818781001688135    3.4219787031509754    2.0057109834916775    1.1957597721912554    0.7378832386326032    
  0.4725122143977451    0.31881865949009125    0.22787811649738737    0.17846152011339242    0.1556575737475278    
  0.15565757374752867    0.17846152011339242    0.22787811649738818    0.31881865949009075    0.4725122143977456    
  0.7378832386326036    1.1957597721912558    2.0057109834916766    3.421978703150975    5.818781001688137    
  9.178242973401689    12.455175602067033    14.270861363796943    14.114063818255675    12.704899844889491    
  11.455502901750505    11.455502901750505    12.70489984488949    14.381259447933838    14.137132935016446    
  12.455175602067035    9.504726625624956    6.292721772376429    3.81748747632442    2.2757076199469695    
  1.3689831107080142    0.8450753496938656    0.539244744035955    0.35871943807062634    0.25201417692709366    
  0.1892901419435776    0.1573834057280873    0.14660741782910738    0.15738340572808812    0.1892901419435772    
  0.25201417692709394    0.3587194380706268    0.5392447440359545    0.8450753496938659    1.368983110708014    
  2.27570761994697    3.817487476324422    6.292721772376429    9.504726625624954    12.455175602067031    
  14.137132935016439    14.381259447933841    13.880490479634462    13.572419746105064    13.88049047963446    
  14.381259447933838    13.549158685447003    11.827521013385589    9.17824297340169    6.292721772376427    
  3.96176624802598    2.428045828161117    1.489068854056191    0.9286565074569908    0.5954475140330371    
  0.39446471603188676    0.27404198939302477    0.20123828414938635    0.16060458068585415    0.1419662842067866    
  0.14196628420678675    0.16060458068585481    0.20123828414938574    0.27404198939302593    0.3944647160318867    
  0.5954475140330372    0.9286565074569908    1.4890688540561912    2.4280458281611184    3.961766248025981    
  6.292721772376429    9.178242973401689    11.827521013385592    13.549158685447003    14.270808956452063    
  14.420038962831415    14.420038962831415    14.27080895645206    13.549158685447003    10.503385277217468    
  8.231478156471114    5.818781001688136    3.817487476324422    2.428045828161117    1.5319043805005677    
  0.9747935580515802    0.6332105896781782    0.42218635288287515    0.2926323017395587    0.21201532937736128    
  0.1646649674436164    0.13926783726225836    0.13129728530009815    0.13926783726225855    0.16466496744361667    
  0.2120153293773614    0.29263230173955945    0.4221863528828756    0.6332105896781786    0.9747935580515802    
  1.5319043805005685    2.428045828161118    3.817487476324421    5.818781001688137    8.231478156471118    
  10.503385277217468    12.145873011600782    13.035804099844876    13.302759516154767    13.035804099844878    
  12.145873011600782    10.503385277217468    6.802925453185167    4.977827071317519    3.4219787031509754    
  2.2757076199469712    1.48906885405619    0.9747935580515791    0.6466846864844918    0.43683946187121553    
  0.3050309058027434    0.2203403639638425    0.16839303711926953    0.13801545248539623    0.12423610254000159    